# Probe 0 (0 5 1)
# Probe 1 (0.1 5 1)
# Probe 2 (0.2 5 1)
# Probe 3 (0.3 5 1)
# Probe 4 (0.4 5 1)
# Probe 5 (0.5 5 1)
# Probe 6 (0.6 5 1)
# Probe 7 (0.7 5 1)
# Probe 8 (0.8 5 1)
# Time        0             1             2             3             4             5             6             7             8            
0             0             0             0             0             0             0             0             0             0            
0.005         0.026075      0.00168381    0.000110637   7.35908e-06   4.93633e-07   2.25511e-09   1.53082e-10   1.04088e-11   7.54721e-13  
0.01          0.0444581     0.00433153    0.000385374   3.25197e-05   2.64845e-06   1.63513e-08   1.25156e-09   9.45073e-11   7.53863e-12  
0.015         0.0588772     0.00761481    0.000851607   8.67606e-05   8.28511e-06   6.61913e-08   5.63914e-09   4.68738e-10   4.09504e-11  
0.02          0.0704172     0.0112937     0.0015176     0.000180794   1.97712e-05   1.97951e-07   1.85622e-08   1.68329e-09   1.59949e-10  
0.025         0.0797668     0.0152009     0.00238002    0.000324068   3.98795e-05   4.88074e-07   4.99167e-08   4.901e-09     5.03388e-10  
0.03          0.0876678     0.0192525     0.00342996    0.000524494   7.16412e-05   1.05051e-06   1.16294e-07   1.22838e-08   1.35653e-09  
0.035         0.0943635     0.02337       0.00465972    0.000788549   0.000118215   2.0427e-06    2.432e-07     2.7485e-08    3.24817e-09  
0.04          0.100029      0.0274787     0.00604997    0.00112155    0.000182782   3.66969e-06   4.67314e-07   5.62385e-08   7.0834e-09   
0.045         0.104795      0.0315284     0.00758193    0.00152646    0.000268467   6.18658e-06   8.38669e-07   1.07031e-07   1.43151e-08  
0.05          0.108876      0.0354803     0.00923608    0.00200429    0.000378242   9.8991e-06    1.42258e-06   1.91825e-07   2.71557e-08  
0.055         0.112417      0.0393003     0.010996      0.00255526    0.000514532   1.51639e-05   2.30139e-06   3.26837e-07   4.88291e-08  
0.06          0.115524      0.0429712     0.0128433     0.00317838    0.000679616   2.23888e-05   3.57589e-06   5.33291e-07   8.38591e-08  
0.065         0.118279      0.046494      0.0147605     0.00387166    0.000875417   3.20109e-05   5.36634e-06   8.38177e-07   1.38391e-07  
0.07          0.120745      0.0498705     0.0167302     0.00463256    0.00110351    4.45097e-05   7.81218e-06   1.27493e-06   2.20537e-07  
0.075         0.12298       0.0531078     0.0187396     0.00545831    0.00136514    6.03937e-05   1.10712e-05   1.88423e-06   3.40751e-07  
0.08          0.125013      0.0562099     0.0207772     0.00634515    0.0016612     8.01949e-05   1.53206e-05   2.71393e-06   5.12191e-07  
0.085         0.126871      0.0591801     0.0228329     0.00728872    0.00199222    0.000104461   2.07557e-05   3.82003e-06   7.51094e-07  
0.09          0.128578      0.0620222     0.0248973     0.00828367    0.00235845    0.000133748   2.75883e-05   5.26676e-06   1.07716e-06  
0.095         0.130157      0.0647411     0.0269625     0.0093259     0.00275995    0.000168616   3.60454e-05   7.12681e-06   1.51389e-06  
0.1           0.131623      0.0673423     0.0290215     0.010411      0.00319634    0.000209618   4.63674e-05   9.48139e-06   2.08897e-06  
0.105         0.132991      0.0698316     0.0310686     0.0115345     0.00366702    0.0002573     5.88059e-05   1.24201e-05   2.83452e-06  
0.11          0.134274      0.0722149     0.0330987     0.0126922     0.0041709     0.000312187   7.36218e-05   1.60408e-05   3.7874e-06   
0.115         0.135466      0.0745003     0.0351078     0.0138801     0.00470689    0.000374786   9.10829e-05   2.04492e-05   4.98941e-06  
0.12          0.13658       0.0766908     0.0370926     0.0150942     0.00527387    0.000445578   0.000111462   2.57587e-05   6.48753e-06  
0.125         0.137631      0.078789      0.0390501     0.0163308     0.00587062    0.000525012   0.000135034   3.20895e-05   8.33398e-06  
0.13          0.138624      0.080799      0.0409777     0.0175863     0.00649577    0.000613501   0.000162074   3.95684e-05   1.05864e-05  
0.135         0.139565      0.0827258     0.0428733     0.0188575     0.0071479     0.000711428   0.000192855   4.83281e-05   1.33077e-05  
0.14          0.140462      0.0845741     0.0447354     0.0201411     0.00782553    0.000819135   0.000227647   5.85063e-05   1.65663e-05  
0.145         0.14132       0.0863486     0.046563      0.0214343     0.00852715    0.000936916   0.000266713   7.02449e-05   2.04358e-05  
0.15          0.142144      0.0880541     0.0483552     0.0227344     0.00925121    0.00106503    0.000310307   8.36898e-05   2.49952e-05  
0.155         0.142935      0.0896948     0.0501117     0.024039      0.00999617    0.00120365    0.000358675   9.89893e-05   3.03282e-05  
0.16          0.143696      0.0912749     0.0518325     0.0253458     0.0107605     0.00135296    0.000412051   0.000116294   3.65234e-05  
0.165         0.14443       0.0927989     0.0535177     0.0266528     0.0115428     0.00151307    0.000470658   0.000135755   4.36741e-05  
0.17          0.145138      0.0942708     0.0551678     0.0279583     0.0123414     0.0016841     0.000534701   0.000157524   5.18775e-05  
0.175         0.145822      0.0956937     0.0567836     0.0292607     0.0131551     0.0018661     0.000604376   0.000181753   6.12351e-05  
0.18          0.146484      0.0970702     0.0583658     0.0305586     0.0139825     0.00205909    0.000679851   0.000208592   7.18514e-05  
0.185         0.147126      0.0984037     0.0599158     0.0318511     0.0148222     0.00226309    0.000761288   0.00023819    8.38344e-05  
0.19          0.147748      0.0996955     0.0614354     0.0331371     0.015673      0.00247804    0.000848833   0.00027069    9.72948e-05  
0.195         0.148352      0.100939      0.062927      0.034416      0.0165338     0.00270389    0.000942622   0.000306237   0.000112345  
0.2           0.148937      0.102139      0.0643891     0.035687      0.0174035     0.00294054    0.00104277    0.00034497    0.000129101  
0.205         0.149504      0.103299      0.0658206     0.0369491     0.0182811     0.00318789    0.00114939    0.000387024   0.000147678  
0.21          0.150054      0.104421      0.0672213     0.0382017     0.0191654     0.0034458     0.00126257    0.00043253    0.000168194  
0.215         0.150587      0.10551       0.0685918     0.039444      0.0200556     0.0037141     0.00138237    0.000481615   0.000190767  
0.22          0.151105      0.106566      0.069933      0.0406754     0.0209507     0.00399264    0.00150887    0.0005344     0.000215515  
0.225         0.151615      0.107591      0.0712458     0.0418953     0.0218499     0.00428121    0.0016421     0.000591003   0.000242556  
0.23          0.152116      0.108589      0.0725308     0.0431035     0.0227523     0.00457962    0.00178211    0.000651534   0.000272009  
0.235         0.152606      0.10956       0.0737878     0.0442997     0.0236572     0.00488765    0.00192891    0.000716093   0.00030399   
0.24          0.153086      0.110506      0.0750101     0.0454842     0.0245638     0.00520508    0.00208251    0.00078478    0.000338614  
0.245         0.153553      0.111428      0.0762046     0.0466566     0.0254716     0.00553165    0.00224292    0.000857688   0.000375994  
0.25          0.15401       0.112326      0.0773759     0.047817      0.0263799     0.00586715    0.0024101     0.000934903   0.000416243  
0.255         0.154455      0.113202      0.0785234     0.0489656     0.0272882     0.0062113     0.00258405    0.00101651    0.00045947   
0.26          0.15489       0.114057      0.0796475     0.050102      0.0281961     0.00656387    0.00276472    0.00110258    0.000505782  
0.265         0.155315      0.114891      0.0807487     0.0512263     0.0291031     0.00692459    0.00295208    0.00119318    0.000555284  
0.27          0.15573       0.115705      0.0818275     0.0523381     0.0300087     0.00729321    0.00314607    0.00128838    0.000608079  
0.275         0.156136      0.116501      0.0828847     0.0534374     0.0309124     0.00766946    0.00334664    0.00138824    0.000664265  
0.28          0.156533      0.117279      0.083921      0.0545238     0.031814      0.0080531     0.00355372    0.0014928     0.00072394   
0.285         0.156922      0.118041      0.084937      0.0555966     0.0327129     0.00844385    0.00376724    0.00160211    0.000787193  
0.29          0.157303      0.118788      0.0859337     0.0566556     0.0336088     0.00884145    0.00398712    0.00171622    0.000854113  
0.295         0.157676      0.11952       0.0869115     0.0577009     0.0345011     0.00924566    0.00421329    0.00183515    0.000924784  
0.3           0.158044      0.120237      0.087871      0.0587327     0.0353897     0.00965621    0.00444564    0.00195894    0.000999286  
0.305         0.158405      0.120939      0.0888126     0.05975       0.0362743     0.0100728     0.00468409    0.00208761    0.0010777    
0.31          0.158759      0.121627      0.0897368     0.0607503     0.037155      0.0104953     0.00492855    0.00222118    0.00116008   
0.315         0.159107      0.122301      0.0906439     0.0617373     0.0380313     0.0109234     0.00517891    0.00235966    0.00124652   
0.32          0.159449      0.122961      0.0915345     0.0627116     0.0389032     0.0113568     0.00543507    0.00250306    0.00133706   
0.325         0.159785      0.123607      0.092409      0.0636732     0.0397706     0.0117953     0.00569693    0.00265139    0.00143178   
0.33          0.160115      0.12424       0.0932678     0.0646223     0.0406332     0.0122386     0.00596437    0.00280464    0.00153072   
0.335         0.160439      0.124859      0.0941114     0.0655588     0.0414909     0.0126867     0.00623728    0.00296282    0.00163393   
0.34          0.160757      0.125464      0.09494       0.066483      0.0423435     0.0131391     0.00651556    0.00312591    0.00174146   
0.345         0.16107       0.126059      0.0957543     0.0673951     0.0431908     0.0135957     0.00679909    0.00329389    0.00185335   
0.35          0.161378      0.126649      0.0965549     0.0682951     0.0440327     0.0140563     0.00708776    0.00346676    0.00196965   
0.355         0.161681      0.127232      0.0973425     0.0691833     0.044869      0.0145207     0.00738144    0.0036445     0.00209037   
0.36          0.161979      0.127807      0.0981172     0.0700597     0.0456995     0.0149887     0.00768004    0.00382707    0.00221556   
0.365         0.162272      0.128373      0.0988795     0.0709245     0.0465241     0.01546       0.00798342    0.00401446    0.00234523   
0.37          0.16256       0.12893       0.09963       0.0717777     0.0473424     0.0159345     0.00829147    0.00420662    0.00247941   
0.375         0.162844      0.129479      0.10037       0.0726198     0.0481541     0.016412      0.00860407    0.00440354    0.00261812   
0.38          0.163123      0.130018      0.101099      0.0734508     0.048959      0.0168922     0.00892111    0.00460516    0.00276136   
0.385         0.163398      0.13055       0.101818      0.0742711     0.0497572     0.017375      0.00924246    0.00481146    0.00290915   
0.39          0.163669      0.131073      0.102527      0.0750808     0.0505469     0.0178602     0.009568      0.00502239    0.00306148   
0.395         0.163935      0.131589      0.103226      0.07588       0.0513293     0.0183476     0.00989762    0.0052379     0.00321837   
0.4           0.164198      0.132097      0.103918      0.0766689     0.052105      0.018837      0.0102312     0.00545794    0.0033798    
0.405         0.164457      0.132598      0.104604      0.0774481     0.0528739     0.0193283     0.0105686     0.00568247    0.00354578   
0.41          0.164712      0.133091      0.105281      0.0782175     0.053636      0.0198213     0.0109097     0.00591144    0.00371629   
0.415         0.164963      0.133578      0.105946      0.078977      0.0543913     0.0203159     0.0112545     0.00614478    0.00389132   
0.42          0.165211      0.134058      0.1066        0.0797267     0.0551398     0.0208119     0.0116027     0.00638244    0.00407085   
0.425         0.165455      0.134532      0.107242      0.0804666     0.0558816     0.0213092     0.0119543     0.00662436    0.00425486   
0.43          0.165696      0.135001      0.107873      0.0811969     0.0566165     0.0218076     0.0123091     0.00687049    0.00444333   
0.435         0.165934      0.135465      0.108495      0.0819176     0.0573447     0.0223069     0.0126671     0.00712075    0.00463623   
0.44          0.166168      0.135922      0.109107      0.0826288     0.0580661     0.0228071     0.0130281     0.00737509    0.00483353   
0.445         0.1664        0.136374      0.109711      0.0833296     0.0587807     0.0233079     0.0133921     0.00763344    0.00503521   
0.45          0.166628      0.136819      0.110306      0.084021      0.0594885     0.0238093     0.0137588     0.00789573    0.00524122   
0.455         0.166853      0.137258      0.110894      0.0847033     0.0601895     0.0243111     0.0141283     0.00816189    0.00545153   
0.46          0.167076      0.137692      0.111473      0.0853769     0.0608838     0.0248132     0.0145003     0.00843185    0.0056661    
0.465         0.167295      0.138119      0.112044      0.0860419     0.0615715     0.0253154     0.0148748     0.00870555    0.00588488   
0.47          0.167511      0.138541      0.112608      0.0866981     0.0622525     0.0258176     0.0152517     0.0089829     0.00610783   
0.475         0.167725      0.138957      0.113165      0.0873456     0.0629268     0.0263196     0.0156308     0.00926384    0.00633491   
0.48          0.167936      0.139367      0.113714      0.0879846     0.0635944     0.0268215     0.016012      0.00954828    0.00656605   
0.485         0.168144      0.139772      0.114256      0.088615      0.0642552     0.0273231     0.0163953     0.00983616    0.00680122   
0.49          0.168349      0.140171      0.114792      0.089237      0.0649093     0.0278242     0.0167806     0.0101274     0.00704035   
0.495         0.168551      0.140565      0.115321      0.0898507     0.0655566     0.0283248     0.0171676     0.0104219     0.00728339   
0.5           0.168751      0.140953      0.115843      0.0904564     0.0661972     0.0288248     0.0175564     0.0107196     0.00753028   
0.505         0.168949      0.141337      0.116359      0.0910542     0.066831      0.0293241     0.0179469     0.0110204     0.00778096   
0.51          0.169144      0.141716      0.116868      0.0916449     0.0674582     0.0298225     0.0183388     0.0113243     0.00803537   
0.515         0.169336      0.142089      0.11737       0.0922298     0.0680789     0.03032       0.0187322     0.0116311     0.00829344   
0.52          0.169526      0.142458      0.117867      0.0928108     0.0686934     0.0308165     0.019127      0.0119408     0.00855512   
0.525         0.169713      0.142822      0.118357      0.0933859     0.0693015     0.0313118     0.019523      0.0122533     0.00882033   
0.53          0.169899      0.143182      0.118841      0.0939535     0.0699034     0.0318059     0.0199201     0.0125685     0.009089     
0.535         0.170082      0.143537      0.119319      0.0945138     0.070499      0.0322987     0.0203183     0.0128863     0.00936103   
0.54          0.170262      0.143887      0.119791      0.0950671     0.0710883     0.03279       0.0207174     0.0132067     0.00963636   
0.545         0.170441      0.144233      0.120257      0.0956136     0.0716715     0.0332799     0.0211174     0.0135296     0.00991493   
0.55          0.170618      0.144575      0.120718      0.0961534     0.0722484     0.0337683     0.0215182     0.0138548     0.0101967    
0.555         0.170792      0.144912      0.121172      0.0966868     0.0728193     0.0342549     0.0219196     0.0141823     0.0104815    
0.56          0.170964      0.145246      0.121621      0.0972136     0.0733841     0.0347397     0.0223216     0.0145121     0.0107693    
0.565         0.171135      0.145575      0.122064      0.0977341     0.0739429     0.0352223     0.0227242     0.0148439     0.0110601    
0.57          0.171303      0.1459        0.122501      0.0982482     0.0744957     0.0357028     0.0231271     0.0151778     0.0113537    
0.575         0.171471      0.146221      0.122933      0.0987563     0.0750424     0.0361813     0.0235303     0.0155137     0.0116502    
0.58          0.171637      0.146538      0.123359      0.0992587     0.0755827     0.0366577     0.0239339     0.0158515     0.0119493    
0.585         0.171801      0.146851      0.12378       0.0997553     0.076117      0.037132      0.0243375     0.016191      0.0122511    
0.59          0.171964      0.147161      0.124196      0.100246      0.0766454     0.0376041     0.0247413     0.0165323     0.0125555    
0.595         0.172125      0.147467      0.124606      0.100731      0.0771679     0.038074      0.0251451     0.0168752     0.0128624    
0.6           0.172284      0.147769      0.125011      0.10121       0.0776844     0.0385416     0.0255488     0.0172196     0.0131717    
0.605         0.172442      0.148067      0.125411      0.101683      0.078195      0.0390069     0.0259523     0.0175654     0.0134833    
0.61          0.172598      0.148362      0.125806      0.102151      0.0786998     0.0394699     0.0263556     0.0179126     0.0137972    
0.615         0.172753      0.148653      0.126197      0.102613      0.0791989     0.0399304     0.0267584     0.018261      0.0141132    
0.62          0.172905      0.148941      0.126582      0.10307       0.0796923     0.0403885     0.0271608     0.0186106     0.0144313    
0.625         0.173056      0.149225      0.126962      0.103522      0.0801802     0.0408442     0.0275626     0.0189613     0.0147515    
0.63          0.173206      0.149506      0.127337      0.103968      0.0806624     0.0412972     0.0279638     0.0193131     0.0150736    
0.635         0.173354      0.149783      0.127708      0.104408      0.0811391     0.0417478     0.0283644     0.0196658     0.0153976    
0.64          0.1735        0.150057      0.128074      0.104844      0.0816103     0.0421957     0.0287643     0.0200194     0.0157234    
0.645         0.173645      0.150326      0.128436      0.105274      0.0820761     0.042641      0.0291634     0.0203738     0.0160509    
0.65          0.17379       0.150592      0.128793      0.105699      0.0825366     0.0430836     0.0295617     0.020729      0.0163801    
0.655         0.173933      0.150854      0.129145      0.106119      0.0829917     0.0435236     0.0299592     0.0210849     0.0167109    
0.66          0.174074      0.151113      0.129493      0.106534      0.0834415     0.0439608     0.0303557     0.0214414     0.0170432    
0.665         0.174214      0.151369      0.129836      0.106943      0.0838877     0.0443952     0.0307513     0.0217984     0.017377     
0.67          0.174352      0.151621      0.130175      0.107348      0.0843289     0.044827      0.0311458     0.0221559     0.0177121    
0.675         0.174489      0.15187       0.13051       0.107748      0.0847651     0.0452559     0.0315394     0.0225138     0.0180485    
0.68          0.174624      0.152117      0.13084       0.108143      0.0851964     0.045682      0.0319317     0.0228721     0.0183861    
0.685         0.174758      0.15236       0.131167      0.108533      0.0856231     0.0461053     0.032323      0.0232306     0.0187248    
0.69          0.17489       0.1526        0.131489      0.108918      0.086045      0.0465258     0.032713      0.0235894     0.0190646    
0.695         0.175021      0.152837      0.131807      0.109299      0.0864623     0.0469435     0.0331018     0.0239483     0.0194054    
0.7           0.175151      0.153071      0.132121      0.109675      0.086875      0.0473583     0.0334893     0.0243073     0.0197471    
0.705         0.175278      0.153302      0.132431      0.110046      0.0872831     0.0477702     0.0338755     0.0246663     0.0200896    
0.71          0.175405      0.15353       0.132737      0.110413      0.0876865     0.0481793     0.0342603     0.0250253     0.020433     
0.715         0.17553       0.153756      0.133039      0.110775      0.0880853     0.0485854     0.0346438     0.0253842     0.020777     
0.72          0.175654      0.153978      0.133337      0.111133      0.0884796     0.0489887     0.0350257     0.0257429     0.0211217    
0.725         0.175776      0.154198      0.133632      0.111486      0.0888694     0.0493891     0.0354061     0.0261014     0.021467     
0.73          0.175897      0.154416      0.133922      0.111835      0.0892547     0.0497866     0.035785      0.0264597     0.0218128    
0.735         0.176017      0.15463       0.134209      0.112179      0.0896355     0.0501812     0.0361624     0.0268177     0.022159     
0.74          0.176135      0.154842      0.134493      0.11252       0.090012      0.0505728     0.0365383     0.0271753     0.0225056    
0.745         0.176252      0.155052      0.134772      0.112855      0.0903841     0.0509615     0.0369125     0.0275324     0.0228526    
0.75          0.176368      0.155259      0.135049      0.113187      0.0907518     0.0513473     0.0372851     0.0278891     0.0231998    
0.755         0.176482      0.155463      0.135321      0.113514      0.0911152     0.05173       0.037656      0.0282452     0.0235472    
0.76          0.176595      0.155665      0.13559       0.113838      0.0914744     0.0521099     0.0380252     0.0286008     0.0238948    
0.765         0.176707      0.155864      0.135856      0.114157      0.0918292     0.0524867     0.0383926     0.0289557     0.0242424    
0.77          0.176818      0.156061      0.136118      0.114472      0.0921799     0.0528608     0.0387582     0.0293099     0.0245901    
0.775         0.176927      0.156255      0.136377      0.114783      0.0925267     0.0532319     0.0391219     0.0296633     0.0249377    
0.78          0.177036      0.156447      0.136632      0.11509       0.0928695     0.0536001     0.0394839     0.030016      0.0252852    
0.785         0.177143      0.156637      0.136885      0.115394      0.0932083     0.0539654     0.0398441     0.0303679     0.0256326    
0.79          0.177248      0.156824      0.137133      0.115693      0.0935431     0.0543278     0.0402026     0.0307192     0.0259799    
0.795         0.177353      0.157009      0.137379      0.115988      0.0938741     0.0546872     0.0405593     0.0310697     0.0263269    
0.8           0.177457      0.157192      0.137622      0.11628       0.0942012     0.0550438     0.0409142     0.0314197     0.0266736    
0.805         0.177559      0.157372      0.137861      0.116568      0.0945246     0.0553975     0.041267      0.0317688     0.0270201    
0.81          0.17766       0.157551      0.138097      0.116853      0.0948443     0.0557485     0.0416179     0.0321171     0.0273662    
0.815         0.17776       0.157727      0.138331      0.117134      0.0951604     0.0560967     0.041967      0.0324644     0.0277119    
0.82          0.177859      0.157901      0.138561      0.117411      0.0954728     0.0564421     0.0423142     0.0328108     0.0280571    
0.825         0.177957      0.158072      0.138788      0.117685      0.0957815     0.0567844     0.0426594     0.0331562     0.0284019    
0.83          0.178054      0.158242      0.139013      0.117955      0.0960867     0.057124      0.0430027     0.0335005     0.0287461    
0.835         0.178149      0.158409      0.139234      0.118222      0.0963884     0.0574608     0.0433441     0.0338437     0.0290897    
0.84          0.178244      0.158575      0.139453      0.118485      0.0966865     0.057795      0.043684      0.034186      0.0294327    
0.845         0.178337      0.158738      0.139668      0.118745      0.0969812     0.0581266     0.0440221     0.0345271     0.0297751    
0.85          0.178429      0.1589        0.139881      0.119002      0.0972723     0.0584556     0.0443586     0.0348671     0.0301168    
0.855         0.178521      0.159059      0.140092      0.119256      0.0975601     0.0587825     0.0446936     0.0352059     0.0304577    
0.86          0.178611      0.159216      0.140299      0.119506      0.0978445     0.0591071     0.0450268     0.0355435     0.0307978    
0.865         0.1787        0.159372      0.140504      0.119753      0.0981256     0.0594292     0.0453582     0.0358798     0.0311371    
0.87          0.178788      0.159525      0.140706      0.119997      0.0984033     0.0597489     0.0456877     0.0362148     0.0314756    
0.875         0.178876      0.159677      0.140906      0.120238      0.0986778     0.0600661     0.0460153     0.0365485     0.0318132    
0.88          0.178962      0.159826      0.141103      0.120476      0.0989491     0.0603807     0.0463409     0.0368808     0.0321499    
0.885         0.179047      0.159974      0.141297      0.120711      0.0992171     0.0606928     0.0466646     0.0372118     0.0324856    
0.89          0.179131      0.16012       0.141489      0.120942      0.0994821     0.0610022     0.0469863     0.0375415     0.0328204    
0.895         0.179215      0.160265      0.141679      0.121171      0.0997438     0.0613091     0.047306      0.0378697     0.0331541    
0.9           0.179297      0.160407      0.141866      0.121397      0.100003      0.0616135     0.0476237     0.0381969     0.0334868    
0.905         0.179379      0.160548      0.14205       0.12162       0.100258      0.0619152     0.0479395     0.0385227     0.0338185    
0.91          0.179459      0.160687      0.142233      0.121841      0.100511      0.0622144     0.0482532     0.0388469     0.0341491    
0.915         0.179539      0.160824      0.142412      0.122058      0.10076       0.0625115     0.0485649     0.0391695     0.0344785    
0.92          0.179617      0.160959      0.14259       0.122273      0.101007      0.0628061     0.0488753     0.0394905     0.0348067    
0.925         0.179695      0.161093      0.142765      0.122485      0.10125       0.0630981     0.0491837     0.03981       0.0351338    
0.93          0.179772      0.161225      0.142938      0.122694      0.101491      0.0633875     0.0494899     0.0401279     0.0354596    
0.935         0.179848      0.161356      0.143109      0.122901      0.101729      0.0636744     0.0497939     0.0404441     0.0357842    
0.94          0.179923      0.161485      0.143278      0.123105      0.101964      0.0639587     0.0500958     0.0407588     0.0361076    
0.945         0.179997      0.161612      0.143444      0.123306      0.102196      0.0642404     0.0503955     0.0410718     0.0364297    
0.95          0.180071      0.161738      0.143609      0.123505      0.102426      0.0645196     0.050693      0.0413831     0.0367504    
0.955         0.180143      0.161862      0.143771      0.123701      0.102653      0.0647963     0.0509885     0.0416928     0.0370699    
0.96          0.180215      0.161984      0.143931      0.123895      0.102877      0.0650705     0.0512818     0.0420001     0.0373879    
0.965         0.180286      0.162106      0.144089      0.124087      0.103098      0.0653423     0.051573      0.0423057     0.0377044    
0.97          0.180356      0.162225      0.144245      0.124276      0.103317      0.0656116     0.0518621     0.0426099     0.0380198    
0.975         0.180425      0.162343      0.144399      0.124462      0.103533      0.0658785     0.0521492     0.0429125     0.0383337    
0.98          0.180494      0.16246       0.144552      0.124647      0.103747      0.0661429     0.0524342     0.0432136     0.0386462    
0.985         0.180561      0.162575      0.144702      0.124829      0.103958      0.066405      0.0527171     0.0435131     0.0389572    
0.99          0.180628      0.162689      0.14485       0.125008      0.104166      0.0666658     0.0529964     0.043811      0.0392669    
0.995         0.180694      0.162802      0.144996      0.125186      0.104373      0.066924      0.053274      0.0441074     0.0395751    
1             0.18076       0.162913      0.145141      0.125361      0.104576      0.0671797     0.0535498     0.0444021     0.0398818    
1.005         0.180824      0.163023      0.145284      0.125534      0.104778      0.0674329     0.0538238     0.0446953     0.0401871    
1.01          0.180888      0.163131      0.145425      0.125705      0.104977      0.0676836     0.0540959     0.0449869     0.0404909    
1.015         0.180951      0.163238      0.145564      0.125873      0.105173      0.067932      0.0543661     0.0452768     0.0407932    
1.02          0.181014      0.163344      0.145701      0.12604       0.105367      0.0681781     0.0546345     0.0455651     0.041094     
1.025         0.181076      0.163448      0.145837      0.126204      0.105559      0.0684218     0.054901      0.0458519     0.0413933    
1.03          0.181137      0.163551      0.145971      0.126367      0.105749      0.0686633     0.0551655     0.0461371     0.041691     
1.035         0.181197      0.163653      0.146103      0.126527      0.105937      0.0689025     0.0554282     0.0464206     0.0419872    
1.04          0.181257      0.163754      0.146234      0.126686      0.106122      0.0691395     0.0556889     0.0467024     0.0422819    
1.045         0.181316      0.163853      0.146362      0.126842      0.106305      0.0693742     0.0559477     0.0469825     0.042575     
1.05          0.181374      0.163952      0.14649       0.126997      0.106486      0.0696068     0.0562046     0.0472607     0.0428665    
1.055         0.181431      0.164049      0.146616      0.127149      0.106665      0.0698373     0.0564596     0.0475371     0.0431564    